Title: * /home/fossee/downloads/labmigration/lm_solve/basicgates/basicgates.cir
Date: Sat Jun 28 22:11:09  2025
Plotname: Transient Analysis
Flags: real
No. Variables: 7
No. Points: 