Title: * /home/fossee/esim-workspace/jk_flipflop/jk_flipflop.cir
Date: Sat Jun 28 22:12:51  2025
Plotname: Transient Analysis
Flags: real
No. Variables: 15
No. Points: 